# vtk DataFile Version 2.0
Simplicial Mesh Example
ASCII
DATASET UNSTRUCTURED_GRID
POINTS 283 double
3.913564e+00 1.200000e+03 0.0
0.000000e+00 1.200000e+03 0.0
9.799446e+01 1.200000e+03 0.0
9.594908e+01 1.200000e+03 0.0
9.386310e+01 1.200000e+03 0.0
9.173569e+01 1.200000e+03 0.0
8.735331e+01 1.200000e+03 0.0
7.805422e+01 1.200000e+03 0.0
7.561287e+01 1.200000e+03 0.0
7.312305e+01 1.200000e+03 0.0
7.058379e+01 1.200000e+03 0.0
6.799412e+01 1.200000e+03 0.0
6.265949e+01 1.200000e+03 0.0
5.711089e+01 1.200000e+03 0.0
5.133976e+01 1.200000e+03 0.0
4.836793e+01 1.200000e+03 0.0
4.224610e+01 1.200000e+03 0.0
3.587875e+01 1.200000e+03 0.0
2.584569e+01 1.200000e+03 0.0
1.882050e+01 1.200000e+03 0.0
1.520294e+01 1.200000e+03 0.0
1.151356e+01 1.200000e+03 0.0
7.750910e+00 1.200000e+03 0.0
2.236762e+01 1.200000e+03 0.0
2.925602e+01 1.200000e+03 0.0
3.259994e+01 1.200000e+03 0.0
3.909373e+01 1.200000e+03 0.0
4.533711e+01 1.200000e+03 0.0
5.425370e+01 1.200000e+03 0.0
5.991246e+01 1.200000e+03 0.0
6.535302e+01 1.200000e+03 0.0
8.044799e+01 1.200000e+03 0.0
8.279517e+01 1.200000e+03 0.0
8.509664e+01 1.200000e+03 0.0
8.956604e+01 1.200000e+03 0.0
1.020115e+02 1.200000e+03 0.0
1.040436e+02 1.200000e+03 0.0
3.319979e+02 1.200000e+03 0.0
3.276080e+02 1.200000e+03 0.0
3.189665e+02 1.200000e+03 0.0
2.861402e+02 1.200000e+03 0.0
2.822250e+02 1.200000e+03 0.0
2.783502e+02 1.200000e+03 0.0
2.745151e+02 1.200000e+03 0.0
2.707184e+02 1.200000e+03 0.0
2.632432e+02 1.200000e+03 0.0
2.595625e+02 1.200000e+03 0.0
2.487443e+02 1.200000e+03 0.0
2.382628e+02 1.200000e+03 0.0
2.280992e+02 1.200000e+03 0.0
2.214968e+02 1.200000e+03 0.0
2.182453e+02 1.200000e+03 0.0
2.150286e+02 1.200000e+03 0.0
2.118458e+02 1.200000e+03 0.0
2.055775e+02 1.200000e+03 0.0
2.024900e+02 1.200000e+03 0.0
1.964090e+02 1.200000e+03 0.0
1.904537e+02 1.200000e+03 0.0
1.875224e+02 1.200000e+03 0.0
1.817508e+02 1.200000e+03 0.0
1.789102e+02 1.200000e+03 0.0
1.760998e+02 1.200000e+03 0.0
1.733189e+02 1.200000e+03 0.0
1.624798e+02 1.200000e+03 0.0
1.598382e+02 1.200000e+03 0.0
1.520763e+02 1.200000e+03 0.0
1.495430e+02 1.200000e+03 0.0
1.470346e+02 1.200000e+03 0.0
1.445497e+02 1.200000e+03 0.0
1.420896e+02 1.200000e+03 0.0
1.278762e+02 1.200000e+03 0.0
1.255893e+02 1.200000e+03 0.0
1.233265e+02 1.200000e+03 0.0
1.210919e+02 1.200000e+03 0.0
1.060982e+02 1.200000e+03 0.0
1.081750e+02 1.200000e+03 0.0
1.102729e+02 1.200000e+03 0.0
1.123917e+02 1.200000e+03 0.0
1.145321e+02 1.200000e+03 0.0
1.166953e+02 1.200000e+03 0.0
1.188818e+02 1.200000e+03 0.0
1.301833e+02 1.200000e+03 0.0
1.325134e+02 1.200000e+03 0.0
1.348669e+02 1.200000e+03 0.0
1.372448e+02 1.200000e+03 0.0
1.396534e+02 1.200000e+03 0.0
1.546364e+02 1.200000e+03 0.0
1.572238e+02 1.200000e+03 0.0
1.651485e+02 1.200000e+03 0.0
1.678440e+02 1.200000e+03 0.0
1.705670e+02 1.200000e+03 0.0
1.846216e+02 1.200000e+03 0.0
1.934157e+02 1.200000e+03 0.0
1.994338e+02 1.200000e+03 0.0
2.086960e+02 1.200000e+03 0.0
2.247811e+02 1.200000e+03 0.0
2.314518e+02 1.200000e+03 0.0
2.348397e+02 1.200000e+03 0.0
2.417200e+02 1.200000e+03 0.0
2.452129e+02 1.200000e+03 0.0
2.523138e+02 1.200000e+03 0.0
2.559199e+02 1.200000e+03 0.0
2.669613e+02 1.200000e+03 0.0
2.900959e+02 1.200000e+03 0.0
2.940921e+02 1.200000e+03 0.0
2.981298e+02 1.200000e+03 0.0
3.022099e+02 1.200000e+03 0.0
3.063334e+02 1.200000e+03 0.0
3.105010e+02 1.200000e+03 0.0
3.147120e+02 1.200000e+03 0.0
3.232649e+02 1.200000e+03 0.0
1.040606e+03 1.200000e+03 0.0
1.028964e+03 1.200000e+03 0.0
1.006000e+03 1.200000e+03 0.0
9.946977e+02 1.200000e+03 0.0
9.835159e+02 1.200000e+03 0.0
9.724623e+02 1.200000e+03 0.0
9.615411e+02 1.200000e+03 0.0
9.507421e+02 1.200000e+03 0.0
8.484756e+02 1.200000e+03 0.0
8.388205e+02 1.200000e+03 0.0
8.292869e+02 1.200000e+03 0.0
8.012362e+02 1.200000e+03 0.0
7.829798e+02 1.200000e+03 0.0
7.651057e+02 1.200000e+03 0.0
7.563177e+02 1.200000e+03 0.0
7.390253e+02 1.200000e+03 0.0
7.304795e+02 1.200000e+03 0.0
6.971525e+02 1.200000e+03 0.0
6.890635e+02 1.200000e+03 0.0
6.810699e+02 1.200000e+03 0.0
6.575811e+02 1.200000e+03 0.0
6.499165e+02 1.200000e+03 0.0
6.423371e+02 1.200000e+03 0.0
6.274028e+02 1.200000e+03 0.0
5.984195e+02 1.200000e+03 0.0
5.913234e+02 1.200000e+03 0.0
5.842923e+02 1.200000e+03 0.0
5.704733e+02 1.200000e+03 0.0
5.636628e+02 1.200000e+03 0.0
5.502008e+02 1.200000e+03 0.0
5.435530e+02 1.200000e+03 0.0
5.369603e+02 1.200000e+03 0.0
5.240145e+02 1.200000e+03 0.0
4.869478e+02 1.200000e+03 0.0
4.809942e+02 1.200000e+03 0.0
4.750872e+02 1.200000e+03 0.0
4.692252e+02 1.200000e+03 0.0
4.634163e+02 1.200000e+03 0.0
4.576708e+02 1.200000e+03 0.0
4.190833e+02 1.200000e+03 0.0
4.086134e+02 1.200000e+03 0.0
4.034601e+02 1.200000e+03 0.0
3.983626e+02 1.200000e+03 0.0
3.933160e+02 1.200000e+03 0.0
3.883151e+02 1.200000e+03 0.0
3.833551e+02 1.200000e+03 0.0
3.592925e+02 1.200000e+03 0.0
3.546355e+02 1.200000e+03 0.0
3.409206e+02 1.200000e+03 0.0
3.364356e+02 1.200000e+03 0.0
3.454509e+02 1.200000e+03 0.0
3.500230e+02 1.200000e+03 0.0
3.640011e+02 1.200000e+03 0.0
3.687639e+02 1.200000e+03 0.0
3.735780e+02 1.200000e+03 0.0
3.784413e+02 1.200000e+03 0.0
4.138219e+02 1.200000e+03 0.0
4.244037e+02 1.200000e+03 0.0
4.297904e+02 1.200000e+03 0.0
4.352466e+02 1.200000e+03 0.0
4.407706e+02 1.200000e+03 0.0
4.463548e+02 1.200000e+03 0.0
4.519880e+02 1.200000e+03 0.0
4.929589e+02 1.200000e+03 0.0
4.990336e+02 1.200000e+03 0.0
5.051724e+02 1.200000e+03 0.0
5.113811e+02 1.200000e+03 0.0
5.176621e+02 1.200000e+03 0.0
5.304443e+02 1.200000e+03 0.0
5.569013e+02 1.200000e+03 0.0
5.773427e+02 1.200000e+03 0.0
6.055685e+02 1.200000e+03 0.0
6.127788e+02 1.200000e+03 0.0
6.200552e+02 1.200000e+03 0.0
6.348307e+02 1.200000e+03 0.0
6.653324e+02 1.200000e+03 0.0
6.731615e+02 1.200000e+03 0.0
7.053369e+02 1.200000e+03 0.0
7.136182e+02 1.200000e+03 0.0
7.220032e+02 1.200000e+03 0.0
7.476314e+02 1.200000e+03 0.0
7.739894e+02 1.200000e+03 0.0
7.920707e+02 1.200000e+03 0.0
8.104908e+02 1.200000e+03 0.0
8.198440e+02 1.200000e+03 0.0
8.582691e+02 1.200000e+03 0.0
8.681895e+02 1.200000e+03 0.0
8.781902e+02 1.200000e+03 0.0
8.882626e+02 1.200000e+03 0.0
8.984099e+02 1.200000e+03 0.0
9.086447e+02 1.200000e+03 0.0
9.189991e+02 1.200000e+03 0.0
9.294661e+02 1.200000e+03 0.0
9.400481e+02 1.200000e+03 0.0
1.017424e+03 1.200000e+03 0.0
1.052338e+03 1.200000e+03 0.0
1.064185e+03 1.200000e+03 0.0
1.076185e+03 1.200000e+03 0.0
2.400000e+03 1.200000e+03 0.0
2.374061e+03 1.200000e+03 0.0
2.323210e+03 1.200000e+03 0.0
2.298268e+03 1.200000e+03 0.0
2.273625e+03 1.200000e+03 0.0
2.249226e+03 1.200000e+03 0.0
2.225072e+03 1.200000e+03 0.0
2.201147e+03 1.200000e+03 0.0
2.177457e+03 1.200000e+03 0.0
2.154054e+03 1.200000e+03 0.0
2.085721e+03 1.200000e+03 0.0
2.019832e+03 1.200000e+03 0.0
1.998321e+03 1.200000e+03 0.0
1.977000e+03 1.200000e+03 0.0
1.955876e+03 1.200000e+03 0.0
1.872833e+03 1.200000e+03 0.0
1.852518e+03 1.200000e+03 0.0
1.773343e+03 1.200000e+03 0.0
1.754152e+03 1.200000e+03 0.0
1.697923e+03 1.200000e+03 0.0
1.679629e+03 1.200000e+03 0.0
1.661560e+03 1.200000e+03 0.0
1.643685e+03 1.200000e+03 0.0
1.591277e+03 1.200000e+03 0.0
1.608522e+03 1.200000e+03 0.0
1.626001e+03 1.200000e+03 0.0
1.716455e+03 1.200000e+03 0.0
1.735197e+03 1.200000e+03 0.0
1.792778e+03 1.200000e+03 0.0
1.812482e+03 1.200000e+03 0.0
1.832403e+03 1.200000e+03 0.0
1.893341e+03 1.200000e+03 0.0
1.914050e+03 1.200000e+03 0.0
1.934909e+03 1.200000e+03 0.0
2.041560e+03 1.200000e+03 0.0
2.063523e+03 1.200000e+03 0.0
2.108182e+03 1.200000e+03 0.0
2.130956e+03 1.200000e+03 0.0
2.348490e+03 1.200000e+03 0.0
1.574283e+03 1.200000e+03 0.0
1.540982e+03 1.200000e+03 0.0
1.524643e+03 1.200000e+03 0.0
1.508519e+03 1.200000e+03 0.0
1.492609e+03 1.200000e+03 0.0
1.445955e+03 1.200000e+03 0.0
1.415694e+03 1.200000e+03 0.0
1.400769e+03 1.200000e+03 0.0
1.342195e+03 1.200000e+03 0.0
1.327835e+03 1.200000e+03 0.0
1.313617e+03 1.200000e+03 0.0
1.299505e+03 1.200000e+03 0.0
1.285470e+03 1.200000e+03 0.0
1.271506e+03 1.200000e+03 0.0
1.243744e+03 1.200000e+03 0.0
1.230013e+03 1.200000e+03 0.0
1.216436e+03 1.200000e+03 0.0
1.203028e+03 1.200000e+03 0.0
1.163756e+03 1.200000e+03 0.0
1.150907e+03 1.200000e+03 0.0
1.113025e+03 1.200000e+03 0.0
1.100627e+03 1.200000e+03 0.0
1.088337e+03 1.200000e+03 0.0
1.125525e+03 1.200000e+03 0.0
1.138156e+03 1.200000e+03 0.0
1.176707e+03 1.200000e+03 0.0
1.189791e+03 1.200000e+03 0.0
1.257592e+03 1.200000e+03 0.0
1.356677e+03 1.200000e+03 0.0
1.371271e+03 1.200000e+03 0.0
1.385969e+03 1.200000e+03 0.0
1.430754e+03 1.200000e+03 0.0
1.461327e+03 1.200000e+03 0.0
1.476881e+03 1.200000e+03 0.0
1.557522e+03 1.200000e+03 0.0
CELLS 281 843
2  0 1
2  22 0
2  23 19
2  24 18
2  25 24
2  26 17
2  27 16
2  28 14
2  29 13
2  30 12
2  31 7
2  32 31
2  33 32
2  34 6
2  2 3
2  3 4
2  4 5
2  5 34
2  6 33
2  7 8
2  8 9
2  9 10
2  10 11
2  11 30
2  12 29
2  13 28
2  14 15
2  15 27
2  16 26
2  17 25
2  18 23
2  19 20
2  20 21
2  21 22
2  74 36
2  36 35
2  75 74
2  76 75
2  77 76
2  78 77
2  79 78
2  80 79
2  81 70
2  82 81
2  83 82
2  84 83
2  85 84
2  86 65
2  87 86
2  88 63
2  89 88
2  90 89
2  91 59
2  92 57
2  93 56
2  94 54
2  95 50
2  96 49
2  97 96
2  98 48
2  99 98
2  100 47
2  101 100
2  102 45
2  103 40
2  104 103
2  105 104
2  106 105
2  107 106
2  108 107
2  109 108
2  110 39
2  160 37
2  37 38
2  38 110
2  39 109
2  40 41
2  41 42
2  42 43
2  43 44
2  44 102
2  45 46
2  46 101
2  47 99
2  48 97
2  49 95
2  50 51
2  51 52
2  52 53
2  53 94
2  54 55
2  55 93
2  56 92
2  57 58
2  58 91
2  59 60
2  60 61
2  61 62
2  62 90
2  63 64
2  64 87
2  65 66
2  66 67
2  67 68
2  68 69
2  69 85
2  70 71
2  71 72
2  72 73
2  73 80
2  161 159
2  162 161
2  163 157
2  164 163
2  165 164
2  166 165
2  167 151
2  168 150
2  169 168
2  170 169
2  171 170
2  172 171
2  173 172
2  174 144
2  175 174
2  176 175
2  177 176
2  178 177
2  179 143
2  180 140
2  181 138
2  182 135
2  183 182
2  184 183
2  185 134
2  186 131
2  187 186
2  188 128
2  189 188
2  190 189
2  191 126
2  192 124
2  193 123
2  194 122
2  195 194
2  196 119
2  197 196
2  198 197
2  199 198
2  200 199
2  201 200
2  202 201
2  203 202
2  204 203
2  205 113
2  206 111
2  207 206
2  208 207
2  270 208
2  111 112
2  112 205
2  113 114
2  114 115
2  115 116
2  116 117
2  117 118
2  118 204
2  119 120
2  120 121
2  121 195
2  122 193
2  123 192
2  124 125
2  125 191
2  126 127
2  127 190
2  128 129
2  129 130
2  130 187
2  131 132
2  132 133
2  133 185
2  134 184
2  135 136
2  136 137
2  137 181
2  138 139
2  139 180
2  140 141
2  141 142
2  142 179
2  143 178
2  144 145
2  145 146
2  146 147
2  147 148
2  148 149
2  149 173
2  150 167
2  151 152
2  152 153
2  153 154
2  154 155
2  155 156
2  156 166
2  157 158
2  158 162
2  159 160
2  209 210
2  233 232
2  234 233
2  235 228
2  236 235
2  237 226
2  238 237
2  239 238
2  240 224
2  241 240
2  242 241
2  243 220
2  244 243
2  245 219
2  246 245
2  247 211
2  210 247
2  211 212
2  212 213
2  213 214
2  214 215
2  215 216
2  216 217
2  217 218
2  218 246
2  219 244
2  220 221
2  221 222
2  222 223
2  223 242
2  224 225
2  225 239
2  226 227
2  227 236
2  228 229
2  229 230
2  230 231
2  231 234
2  232 248
2  271 268
2  272 271
2  273 266
2  274 273
2  275 262
2  276 256
2  277 276
2  278 277
2  279 254
2  280 253
2  281 280
2  282 249
2  248 282
2  249 250
2  250 251
2  251 252
2  252 281
2  253 279
2  254 255
2  255 278
2  256 257
2  257 258
2  258 259
2  259 260
2  260 261
2  261 275
2  262 263
2  263 264
2  264 265
2  265 274
2  266 267
2  267 272
2  268 269
2  269 270
CELL_TYPES 281
3
3
3
3
3
3
3
3
3
3
3
3
3
3
3
3
3
3
3
3
3
3
3
3
3
3
3
3
3
3
3
3
3
3
3
3
3
3
3
3
3
3
3
3
3
3
3
3
3
3
3
3
3
3
3
3
3
3
3
3
3
3
3
3
3
3
3
3
3
3
3
3
3
3
3
3
3
3
3
3
3
3
3
3
3
3
3
3
3
3
3
3
3
3
3
3
3
3
3
3
3
3
3
3
3
3
3
3
3
3
3
3
3
3
3
3
3
3
3
3
3
3
3
3
3
3
3
3
3
3
3
3
3
3
3
3
3
3
3
3
3
3
3
3
3
3
3
3
3
3
3
3
3
3
3
3
3
3
3
3
3
3
3
3
3
3
3
3
3
3
3
3
3
3
3
3
3
3
3
3
3
3
3
3
3
3
3
3
3
3
3
3
3
3
3
3
3
3
3
3
3
3
3
3
3
3
3
3
3
3
3
3
3
3
3
3
3
3
3
3
3
3
3
3
3
3
3
3
3
3
3
3
3
3
3
3
3
3
3
3
3
3
3
3
3
3
3
3
3
3
3
3
3
3
3
3
3
3
3
3
3
3
3
3
3
3
3
3
3
3
3
3
3
3
3
3
3
3
3
3
3
CELL_DATA 281
VECTORS change_traction double
0.000000e+00 -9.408000e+06 0.0
0.000000e+00 -9.408000e+06 0.0
0.000000e+00 -9.408000e+06 0.0
0.000000e+00 -9.408000e+06 0.0
0.000000e+00 -9.408000e+06 0.0
0.000000e+00 -9.408000e+06 0.0
0.000000e+00 -9.408000e+06 0.0
0.000000e+00 -9.408000e+06 0.0
0.000000e+00 -9.408000e+06 0.0
0.000000e+00 -9.408000e+06 0.0
0.000000e+00 -9.408000e+06 0.0
0.000000e+00 -9.408000e+06 0.0
0.000000e+00 -9.408000e+06 0.0
0.000000e+00 -9.408000e+06 0.0
0.000000e+00 -9.408000e+06 0.0
0.000000e+00 -9.408000e+06 0.0
0.000000e+00 -9.408000e+06 0.0
0.000000e+00 -9.408000e+06 0.0
0.000000e+00 -9.408000e+06 0.0
0.000000e+00 -9.408000e+06 0.0
0.000000e+00 -9.408000e+06 0.0
0.000000e+00 -9.408000e+06 0.0
0.000000e+00 -9.408000e+06 0.0
0.000000e+00 -9.408000e+06 0.0
0.000000e+00 -9.408000e+06 0.0
0.000000e+00 -9.408000e+06 0.0
0.000000e+00 -9.408000e+06 0.0
0.000000e+00 -9.408000e+06 0.0
0.000000e+00 -9.408000e+06 0.0
0.000000e+00 -9.408000e+06 0.0
0.000000e+00 -9.408000e+06 0.0
0.000000e+00 -9.408000e+06 0.0
0.000000e+00 -9.408000e+06 0.0
0.000000e+00 -9.408000e+06 0.0
0.000000e+00 -9.408000e+06 0.0
0.000000e+00 -9.408000e+06 0.0
0.000000e+00 -9.408000e+06 0.0
0.000000e+00 -9.408000e+06 0.0
0.000000e+00 -9.408000e+06 0.0
0.000000e+00 -9.408000e+06 0.0
0.000000e+00 -9.408000e+06 0.0
0.000000e+00 -9.408000e+06 0.0
0.000000e+00 -9.408000e+06 0.0
0.000000e+00 -9.408000e+06 0.0
0.000000e+00 -9.408000e+06 0.0
0.000000e+00 -9.408000e+06 0.0
0.000000e+00 -9.408000e+06 0.0
0.000000e+00 -9.408000e+06 0.0
0.000000e+00 -9.408000e+06 0.0
0.000000e+00 -9.408000e+06 0.0
0.000000e+00 -9.408000e+06 0.0
0.000000e+00 -9.408000e+06 0.0
0.000000e+00 -9.408000e+06 0.0
0.000000e+00 -9.408000e+06 0.0
0.000000e+00 -9.408000e+06 0.0
0.000000e+00 -9.408000e+06 0.0
0.000000e+00 -9.408000e+06 0.0
0.000000e+00 -9.408000e+06 0.0
0.000000e+00 -9.408000e+06 0.0
0.000000e+00 -9.408000e+06 0.0
0.000000e+00 -9.408000e+06 0.0
0.000000e+00 -9.408000e+06 0.0
0.000000e+00 -9.408000e+06 0.0
0.000000e+00 -9.408000e+06 0.0
0.000000e+00 -9.408000e+06 0.0
0.000000e+00 -9.408000e+06 0.0
0.000000e+00 -9.408000e+06 0.0
0.000000e+00 -9.408000e+06 0.0
0.000000e+00 -9.408000e+06 0.0
0.000000e+00 -9.408000e+06 0.0
0.000000e+00 -9.408000e+06 0.0
0.000000e+00 -9.408000e+06 0.0
0.000000e+00 -9.408000e+06 0.0
0.000000e+00 -9.408000e+06 0.0
0.000000e+00 -9.408000e+06 0.0
0.000000e+00 -9.408000e+06 0.0
0.000000e+00 -9.408000e+06 0.0
0.000000e+00 -9.408000e+06 0.0
0.000000e+00 -9.408000e+06 0.0
0.000000e+00 -9.408000e+06 0.0
0.000000e+00 -9.408000e+06 0.0
0.000000e+00 -9.408000e+06 0.0
0.000000e+00 -9.408000e+06 0.0
0.000000e+00 -9.408000e+06 0.0
0.000000e+00 -9.408000e+06 0.0
0.000000e+00 -9.408000e+06 0.0
0.000000e+00 -9.408000e+06 0.0
0.000000e+00 -9.408000e+06 0.0
0.000000e+00 -9.408000e+06 0.0
0.000000e+00 -9.408000e+06 0.0
0.000000e+00 -9.408000e+06 0.0
0.000000e+00 -9.408000e+06 0.0
0.000000e+00 -9.408000e+06 0.0
0.000000e+00 -9.408000e+06 0.0
0.000000e+00 -9.408000e+06 0.0
0.000000e+00 -9.408000e+06 0.0
0.000000e+00 -9.408000e+06 0.0
0.000000e+00 -9.408000e+06 0.0
0.000000e+00 -9.408000e+06 0.0
0.000000e+00 -9.408000e+06 0.0
0.000000e+00 -9.408000e+06 0.0
0.000000e+00 -9.408000e+06 0.0
0.000000e+00 -9.408000e+06 0.0
0.000000e+00 -9.408000e+06 0.0
0.000000e+00 -9.408000e+06 0.0
0.000000e+00 -9.408000e+06 0.0
0.000000e+00 -9.408000e+06 0.0
0.000000e+00 -9.408000e+06 0.0
0.000000e+00 -9.408000e+06 0.0
0.000000e+00 -9.408000e+06 0.0
0.000000e+00 -9.408000e+06 0.0
0.000000e+00 -9.408000e+06 0.0
0.000000e+00 -9.408000e+06 0.0
0.000000e+00 -9.408000e+06 0.0
0.000000e+00 -9.408000e+06 0.0
0.000000e+00 -9.408000e+06 0.0
0.000000e+00 -9.408000e+06 0.0
0.000000e+00 -9.408000e+06 0.0
0.000000e+00 -9.408000e+06 0.0
0.000000e+00 -9.408000e+06 0.0
0.000000e+00 -9.408000e+06 0.0
0.000000e+00 -9.408000e+06 0.0
0.000000e+00 -9.408000e+06 0.0
0.000000e+00 -9.408000e+06 0.0
0.000000e+00 -9.408000e+06 0.0
0.000000e+00 -9.408000e+06 0.0
0.000000e+00 -9.408000e+06 0.0
0.000000e+00 -9.408000e+06 0.0
0.000000e+00 -9.408000e+06 0.0
0.000000e+00 -9.408000e+06 0.0
0.000000e+00 -9.408000e+06 0.0
0.000000e+00 -9.408000e+06 0.0
0.000000e+00 -9.408000e+06 0.0
0.000000e+00 -9.408000e+06 0.0
0.000000e+00 -9.408000e+06 0.0
0.000000e+00 -9.408000e+06 0.0
0.000000e+00 -9.408000e+06 0.0
0.000000e+00 -9.408000e+06 0.0
0.000000e+00 -9.408000e+06 0.0
0.000000e+00 -9.408000e+06 0.0
0.000000e+00 -9.408000e+06 0.0
0.000000e+00 -9.408000e+06 0.0
0.000000e+00 -9.408000e+06 0.0
0.000000e+00 -9.408000e+06 0.0
0.000000e+00 -9.408000e+06 0.0
0.000000e+00 -9.408000e+06 0.0
0.000000e+00 -9.408000e+06 0.0
0.000000e+00 -9.408000e+06 0.0
0.000000e+00 -9.408000e+06 0.0
0.000000e+00 -9.408000e+06 0.0
0.000000e+00 -9.408000e+06 0.0
0.000000e+00 -9.408000e+06 0.0
0.000000e+00 -9.408000e+06 0.0
0.000000e+00 -9.408000e+06 0.0
0.000000e+00 -9.408000e+06 0.0
0.000000e+00 -9.408000e+06 0.0
0.000000e+00 -9.408000e+06 0.0
0.000000e+00 -9.408000e+06 0.0
0.000000e+00 -9.408000e+06 0.0
0.000000e+00 -9.408000e+06 0.0
0.000000e+00 -9.408000e+06 0.0
0.000000e+00 -9.408000e+06 0.0
0.000000e+00 -9.408000e+06 0.0
0.000000e+00 -9.408000e+06 0.0
0.000000e+00 -9.408000e+06 0.0
0.000000e+00 -9.408000e+06 0.0
0.000000e+00 -9.408000e+06 0.0
0.000000e+00 -9.408000e+06 0.0
0.000000e+00 -9.408000e+06 0.0
0.000000e+00 -9.408000e+06 0.0
0.000000e+00 -9.408000e+06 0.0
0.000000e+00 -9.408000e+06 0.0
0.000000e+00 -9.408000e+06 0.0
0.000000e+00 -9.408000e+06 0.0
0.000000e+00 -9.408000e+06 0.0
0.000000e+00 -9.408000e+06 0.0
0.000000e+00 -9.408000e+06 0.0
0.000000e+00 -9.408000e+06 0.0
0.000000e+00 -9.408000e+06 0.0
0.000000e+00 -9.408000e+06 0.0
0.000000e+00 -9.408000e+06 0.0
0.000000e+00 -9.408000e+06 0.0
0.000000e+00 -9.408000e+06 0.0
0.000000e+00 -9.408000e+06 0.0
0.000000e+00 -9.408000e+06 0.0
0.000000e+00 -9.408000e+06 0.0
0.000000e+00 -9.408000e+06 0.0
0.000000e+00 -9.408000e+06 0.0
0.000000e+00 -9.408000e+06 0.0
0.000000e+00 -9.408000e+06 0.0
0.000000e+00 -9.408000e+06 0.0
0.000000e+00 -9.408000e+06 0.0
0.000000e+00 -9.408000e+06 0.0
0.000000e+00 -9.408000e+06 0.0
0.000000e+00 -9.408000e+06 0.0
0.000000e+00 -9.408000e+06 0.0
0.000000e+00 -9.408000e+06 0.0
0.000000e+00 -9.408000e+06 0.0
0.000000e+00 -9.408000e+06 0.0
0.000000e+00 -9.408000e+06 0.0
0.000000e+00 -9.408000e+06 0.0
0.000000e+00 -9.408000e+06 0.0
0.000000e+00 -9.408000e+06 0.0
0.000000e+00 -9.408000e+06 0.0
0.000000e+00 -9.408000e+06 0.0
0.000000e+00 -9.408000e+06 0.0
0.000000e+00 -9.408000e+06 0.0
0.000000e+00 -9.408000e+06 0.0
0.000000e+00 -9.408000e+06 0.0
0.000000e+00 -9.408000e+06 0.0
0.000000e+00 -9.408000e+06 0.0
0.000000e+00 -9.408000e+06 0.0
0.000000e+00 -9.408000e+06 0.0
0.000000e+00 -9.408000e+06 0.0
0.000000e+00 -9.408000e+06 0.0
0.000000e+00 -9.408000e+06 0.0
0.000000e+00 -9.408000e+06 0.0
0.000000e+00 -9.408000e+06 0.0
0.000000e+00 -9.408000e+06 0.0
0.000000e+00 -9.408000e+06 0.0
0.000000e+00 -9.408000e+06 0.0
0.000000e+00 -9.408000e+06 0.0
0.000000e+00 -9.408000e+06 0.0
0.000000e+00 -9.408000e+06 0.0
0.000000e+00 -9.408000e+06 0.0
0.000000e+00 -9.408000e+06 0.0
0.000000e+00 -9.408000e+06 0.0
0.000000e+00 -9.408000e+06 0.0
0.000000e+00 -9.408000e+06 0.0
0.000000e+00 -9.408000e+06 0.0
0.000000e+00 -9.408000e+06 0.0
0.000000e+00 -9.408000e+06 0.0
0.000000e+00 -9.408000e+06 0.0
0.000000e+00 -9.408000e+06 0.0
0.000000e+00 -9.408000e+06 0.0
0.000000e+00 -9.408000e+06 0.0
0.000000e+00 -9.408000e+06 0.0
0.000000e+00 -9.408000e+06 0.0
0.000000e+00 -9.408000e+06 0.0
0.000000e+00 -9.408000e+06 0.0
0.000000e+00 -9.408000e+06 0.0
0.000000e+00 -9.408000e+06 0.0
0.000000e+00 -9.408000e+06 0.0
0.000000e+00 -9.408000e+06 0.0
0.000000e+00 -9.408000e+06 0.0
0.000000e+00 -9.408000e+06 0.0
0.000000e+00 -9.408000e+06 0.0
0.000000e+00 -9.408000e+06 0.0
0.000000e+00 -9.408000e+06 0.0
0.000000e+00 -9.408000e+06 0.0
0.000000e+00 -9.408000e+06 0.0
0.000000e+00 -9.408000e+06 0.0
0.000000e+00 -9.408000e+06 0.0
0.000000e+00 -9.408000e+06 0.0
0.000000e+00 -9.408000e+06 0.0
0.000000e+00 -9.408000e+06 0.0
0.000000e+00 -9.408000e+06 0.0
0.000000e+00 -9.408000e+06 0.0
0.000000e+00 -9.408000e+06 0.0
0.000000e+00 -9.408000e+06 0.0
0.000000e+00 -9.408000e+06 0.0
0.000000e+00 -9.408000e+06 0.0
0.000000e+00 -9.408000e+06 0.0
0.000000e+00 -9.408000e+06 0.0
0.000000e+00 -9.408000e+06 0.0
0.000000e+00 -9.408000e+06 0.0
0.000000e+00 -9.408000e+06 0.0
0.000000e+00 -9.408000e+06 0.0
0.000000e+00 -9.408000e+06 0.0
0.000000e+00 -9.408000e+06 0.0
0.000000e+00 -9.408000e+06 0.0
0.000000e+00 -9.408000e+06 0.0
0.000000e+00 -9.408000e+06 0.0
0.000000e+00 -9.408000e+06 0.0
0.000000e+00 -9.408000e+06 0.0
0.000000e+00 -9.408000e+06 0.0
0.000000e+00 -9.408000e+06 0.0
0.000000e+00 -9.408000e+06 0.0
0.000000e+00 -9.408000e+06 0.0
0.000000e+00 -9.408000e+06 0.0
0.000000e+00 -9.408000e+06 0.0
VECTORS change_traction_time double
0.000000e+00 0.0 0.0
0.000000e+00 0.0 0.0
0.000000e+00 0.0 0.0
0.000000e+00 0.0 0.0
0.000000e+00 0.0 0.0
0.000000e+00 0.0 0.0
0.000000e+00 0.0 0.0
0.000000e+00 0.0 0.0
0.000000e+00 0.0 0.0
0.000000e+00 0.0 0.0
0.000000e+00 0.0 0.0
0.000000e+00 0.0 0.0
0.000000e+00 0.0 0.0
0.000000e+00 0.0 0.0
0.000000e+00 0.0 0.0
0.000000e+00 0.0 0.0
0.000000e+00 0.0 0.0
0.000000e+00 0.0 0.0
0.000000e+00 0.0 0.0
0.000000e+00 0.0 0.0
0.000000e+00 0.0 0.0
0.000000e+00 0.0 0.0
0.000000e+00 0.0 0.0
0.000000e+00 0.0 0.0
0.000000e+00 0.0 0.0
0.000000e+00 0.0 0.0
0.000000e+00 0.0 0.0
0.000000e+00 0.0 0.0
0.000000e+00 0.0 0.0
0.000000e+00 0.0 0.0
0.000000e+00 0.0 0.0
0.000000e+00 0.0 0.0
0.000000e+00 0.0 0.0
0.000000e+00 0.0 0.0
0.000000e+00 0.0 0.0
0.000000e+00 0.0 0.0
0.000000e+00 0.0 0.0
0.000000e+00 0.0 0.0
0.000000e+00 0.0 0.0
0.000000e+00 0.0 0.0
0.000000e+00 0.0 0.0
0.000000e+00 0.0 0.0
0.000000e+00 0.0 0.0
0.000000e+00 0.0 0.0
0.000000e+00 0.0 0.0
0.000000e+00 0.0 0.0
0.000000e+00 0.0 0.0
0.000000e+00 0.0 0.0
0.000000e+00 0.0 0.0
0.000000e+00 0.0 0.0
0.000000e+00 0.0 0.0
0.000000e+00 0.0 0.0
0.000000e+00 0.0 0.0
0.000000e+00 0.0 0.0
0.000000e+00 0.0 0.0
0.000000e+00 0.0 0.0
0.000000e+00 0.0 0.0
0.000000e+00 0.0 0.0
0.000000e+00 0.0 0.0
0.000000e+00 0.0 0.0
0.000000e+00 0.0 0.0
0.000000e+00 0.0 0.0
0.000000e+00 0.0 0.0
0.000000e+00 0.0 0.0
0.000000e+00 0.0 0.0
0.000000e+00 0.0 0.0
0.000000e+00 0.0 0.0
0.000000e+00 0.0 0.0
0.000000e+00 0.0 0.0
0.000000e+00 0.0 0.0
0.000000e+00 0.0 0.0
0.000000e+00 0.0 0.0
0.000000e+00 0.0 0.0
0.000000e+00 0.0 0.0
0.000000e+00 0.0 0.0
0.000000e+00 0.0 0.0
0.000000e+00 0.0 0.0
0.000000e+00 0.0 0.0
0.000000e+00 0.0 0.0
0.000000e+00 0.0 0.0
0.000000e+00 0.0 0.0
0.000000e+00 0.0 0.0
0.000000e+00 0.0 0.0
0.000000e+00 0.0 0.0
0.000000e+00 0.0 0.0
0.000000e+00 0.0 0.0
0.000000e+00 0.0 0.0
0.000000e+00 0.0 0.0
0.000000e+00 0.0 0.0
0.000000e+00 0.0 0.0
0.000000e+00 0.0 0.0
0.000000e+00 0.0 0.0
0.000000e+00 0.0 0.0
0.000000e+00 0.0 0.0
0.000000e+00 0.0 0.0
0.000000e+00 0.0 0.0
0.000000e+00 0.0 0.0
0.000000e+00 0.0 0.0
0.000000e+00 0.0 0.0
0.000000e+00 0.0 0.0
0.000000e+00 0.0 0.0
0.000000e+00 0.0 0.0
0.000000e+00 0.0 0.0
0.000000e+00 0.0 0.0
0.000000e+00 0.0 0.0
0.000000e+00 0.0 0.0
0.000000e+00 0.0 0.0
0.000000e+00 0.0 0.0
0.000000e+00 0.0 0.0
0.000000e+00 0.0 0.0
0.000000e+00 0.0 0.0
0.000000e+00 0.0 0.0
0.000000e+00 0.0 0.0
0.000000e+00 0.0 0.0
0.000000e+00 0.0 0.0
0.000000e+00 0.0 0.0
0.000000e+00 0.0 0.0
0.000000e+00 0.0 0.0
0.000000e+00 0.0 0.0
0.000000e+00 0.0 0.0
0.000000e+00 0.0 0.0
0.000000e+00 0.0 0.0
0.000000e+00 0.0 0.0
0.000000e+00 0.0 0.0
0.000000e+00 0.0 0.0
0.000000e+00 0.0 0.0
0.000000e+00 0.0 0.0
0.000000e+00 0.0 0.0
0.000000e+00 0.0 0.0
0.000000e+00 0.0 0.0
0.000000e+00 0.0 0.0
0.000000e+00 0.0 0.0
0.000000e+00 0.0 0.0
0.000000e+00 0.0 0.0
0.000000e+00 0.0 0.0
0.000000e+00 0.0 0.0
0.000000e+00 0.0 0.0
0.000000e+00 0.0 0.0
0.000000e+00 0.0 0.0
0.000000e+00 0.0 0.0
0.000000e+00 0.0 0.0
0.000000e+00 0.0 0.0
0.000000e+00 0.0 0.0
0.000000e+00 0.0 0.0
0.000000e+00 0.0 0.0
0.000000e+00 0.0 0.0
0.000000e+00 0.0 0.0
0.000000e+00 0.0 0.0
0.000000e+00 0.0 0.0
0.000000e+00 0.0 0.0
0.000000e+00 0.0 0.0
0.000000e+00 0.0 0.0
0.000000e+00 0.0 0.0
0.000000e+00 0.0 0.0
0.000000e+00 0.0 0.0
0.000000e+00 0.0 0.0
0.000000e+00 0.0 0.0
0.000000e+00 0.0 0.0
0.000000e+00 0.0 0.0
0.000000e+00 0.0 0.0
0.000000e+00 0.0 0.0
0.000000e+00 0.0 0.0
0.000000e+00 0.0 0.0
0.000000e+00 0.0 0.0
0.000000e+00 0.0 0.0
0.000000e+00 0.0 0.0
0.000000e+00 0.0 0.0
0.000000e+00 0.0 0.0
0.000000e+00 0.0 0.0
0.000000e+00 0.0 0.0
0.000000e+00 0.0 0.0
0.000000e+00 0.0 0.0
0.000000e+00 0.0 0.0
0.000000e+00 0.0 0.0
0.000000e+00 0.0 0.0
0.000000e+00 0.0 0.0
0.000000e+00 0.0 0.0
0.000000e+00 0.0 0.0
0.000000e+00 0.0 0.0
0.000000e+00 0.0 0.0
0.000000e+00 0.0 0.0
0.000000e+00 0.0 0.0
0.000000e+00 0.0 0.0
0.000000e+00 0.0 0.0
0.000000e+00 0.0 0.0
0.000000e+00 0.0 0.0
0.000000e+00 0.0 0.0
0.000000e+00 0.0 0.0
0.000000e+00 0.0 0.0
0.000000e+00 0.0 0.0
0.000000e+00 0.0 0.0
0.000000e+00 0.0 0.0
0.000000e+00 0.0 0.0
0.000000e+00 0.0 0.0
0.000000e+00 0.0 0.0
0.000000e+00 0.0 0.0
0.000000e+00 0.0 0.0
0.000000e+00 0.0 0.0
0.000000e+00 0.0 0.0
0.000000e+00 0.0 0.0
0.000000e+00 0.0 0.0
0.000000e+00 0.0 0.0
0.000000e+00 0.0 0.0
0.000000e+00 0.0 0.0
0.000000e+00 0.0 0.0
0.000000e+00 0.0 0.0
0.000000e+00 0.0 0.0
0.000000e+00 0.0 0.0
0.000000e+00 0.0 0.0
0.000000e+00 0.0 0.0
0.000000e+00 0.0 0.0
0.000000e+00 0.0 0.0
0.000000e+00 0.0 0.0
0.000000e+00 0.0 0.0
0.000000e+00 0.0 0.0
0.000000e+00 0.0 0.0
0.000000e+00 0.0 0.0
0.000000e+00 0.0 0.0
0.000000e+00 0.0 0.0
0.000000e+00 0.0 0.0
0.000000e+00 0.0 0.0
0.000000e+00 0.0 0.0
0.000000e+00 0.0 0.0
0.000000e+00 0.0 0.0
0.000000e+00 0.0 0.0
0.000000e+00 0.0 0.0
0.000000e+00 0.0 0.0
0.000000e+00 0.0 0.0
0.000000e+00 0.0 0.0
0.000000e+00 0.0 0.0
0.000000e+00 0.0 0.0
0.000000e+00 0.0 0.0
0.000000e+00 0.0 0.0
0.000000e+00 0.0 0.0
0.000000e+00 0.0 0.0
0.000000e+00 0.0 0.0
0.000000e+00 0.0 0.0
0.000000e+00 0.0 0.0
0.000000e+00 0.0 0.0
0.000000e+00 0.0 0.0
0.000000e+00 0.0 0.0
0.000000e+00 0.0 0.0
0.000000e+00 0.0 0.0
0.000000e+00 0.0 0.0
0.000000e+00 0.0 0.0
0.000000e+00 0.0 0.0
0.000000e+00 0.0 0.0
0.000000e+00 0.0 0.0
0.000000e+00 0.0 0.0
0.000000e+00 0.0 0.0
0.000000e+00 0.0 0.0
0.000000e+00 0.0 0.0
0.000000e+00 0.0 0.0
0.000000e+00 0.0 0.0
0.000000e+00 0.0 0.0
0.000000e+00 0.0 0.0
0.000000e+00 0.0 0.0
0.000000e+00 0.0 0.0
0.000000e+00 0.0 0.0
0.000000e+00 0.0 0.0
0.000000e+00 0.0 0.0
0.000000e+00 0.0 0.0
0.000000e+00 0.0 0.0
0.000000e+00 0.0 0.0
0.000000e+00 0.0 0.0
0.000000e+00 0.0 0.0
0.000000e+00 0.0 0.0
0.000000e+00 0.0 0.0
0.000000e+00 0.0 0.0
0.000000e+00 0.0 0.0
0.000000e+00 0.0 0.0
0.000000e+00 0.0 0.0
0.000000e+00 0.0 0.0
0.000000e+00 0.0 0.0
0.000000e+00 0.0 0.0
0.000000e+00 0.0 0.0
0.000000e+00 0.0 0.0
0.000000e+00 0.0 0.0
0.000000e+00 0.0 0.0
0.000000e+00 0.0 0.0
0.000000e+00 0.0 0.0
