# vtk DataFile Version 2.0
Simplicial Mesh Example
ASCII
DATASET UNSTRUCTURED_GRID
POINTS 94 double
2.400000e+03 0.000000e+00 0.0
2.400000e+03 6.392847e+00 0.0
2.400000e+03 1.928649e+01 0.0
2.400000e+03 3.230544e+01 0.0
2.400000e+03 5.215055e+01 0.0
2.400000e+03 5.885449e+01 0.0
2.400000e+03 7.241201e+01 0.0
2.400000e+03 8.622067e+01 0.0
2.400000e+03 9.322158e+01 0.0
2.400000e+03 1.002843e+02 0.0
2.400000e+03 1.146310e+02 0.0
2.400000e+03 1.292560e+02 0.0
2.400000e+03 1.366823e+02 0.0
2.400000e+03 1.441946e+02 0.0
2.400000e+03 1.750475e+02 0.0
2.400000e+03 1.830139e+02 0.0
2.400000e+03 1.910873e+02 0.0
2.400000e+03 2.159940e+02 0.0
2.400000e+03 2.332543e+02 0.0
2.400000e+03 2.694639e+02 0.0
2.400000e+03 2.789111e+02 0.0
2.400000e+03 2.885134e+02 0.0
2.400000e+03 2.982793e+02 0.0
2.400000e+03 3.285917e+02 0.0
2.400000e+03 3.496596e+02 0.0
2.400000e+03 3.826849e+02 0.0
2.400000e+03 3.941271e+02 0.0
2.400000e+03 4.057972e+02 0.0
2.400000e+03 4.421583e+02 0.0
2.400000e+03 4.547432e+02 0.0
2.400000e+03 4.675666e+02 0.0
2.400000e+03 5.941973e+02 0.0
2.400000e+03 6.095633e+02 0.0
2.400000e+03 6.252055e+02 0.0
2.400000e+03 6.411178e+02 0.0
2.400000e+03 6.737221e+02 0.0
2.400000e+03 7.247602e+02 0.0
2.400000e+03 7.424184e+02 0.0
2.400000e+03 7.604291e+02 0.0
2.400000e+03 7.787760e+02 0.0
2.400000e+03 7.974734e+02 0.0
2.400000e+03 8.165414e+02 0.0
2.400000e+03 8.359779e+02 0.0
2.400000e+03 8.557824e+02 0.0
2.400000e+03 8.759692e+02 0.0
2.400000e+03 9.175483e+02 0.0
2.400000e+03 9.389411e+02 0.0
2.400000e+03 9.607051e+02 0.0
2.400000e+03 9.828333e+02 0.0
2.400000e+03 1.028243e+03 0.0
2.400000e+03 1.051523e+03 0.0
2.400000e+03 1.075182e+03 0.0
2.400000e+03 1.099245e+03 0.0
2.400000e+03 1.123732e+03 0.0
2.400000e+03 1.148669e+03 0.0
2.400000e+03 1.200000e+03 0.0
2.400000e+03 1.174090e+03 0.0
2.400000e+03 1.005343e+03 0.0
2.400000e+03 8.965540e+02 0.0
2.400000e+03 7.074418e+02 0.0
2.400000e+03 6.904373e+02 0.0
2.400000e+03 6.572869e+02 0.0
2.400000e+03 5.791044e+02 0.0
2.400000e+03 5.642835e+02 0.0
2.400000e+03 5.497295e+02 0.0
2.400000e+03 5.354230e+02 0.0
2.400000e+03 5.075142e+02 0.0
2.400000e+03 5.213478e+02 0.0
2.400000e+03 4.939410e+02 0.0
2.400000e+03 3.604621e+02 0.0
2.400000e+03 3.714644e+02 0.0
2.400000e+03 3.390332e+02 0.0
2.400000e+03 3.183282e+02 0.0
2.400000e+03 2.601827e+02 0.0
2.400000e+03 2.510673e+02 0.0
2.400000e+03 2.420953e+02 0.0
2.400000e+03 2.245529e+02 0.0
2.400000e+03 2.075711e+02 0.0
2.400000e+03 1.992720e+02 0.0
2.400000e+03 3.082224e+02 0.0
2.400000e+03 1.671944e+02 0.0
2.400000e+03 1.517875e+02 0.0
2.400000e+03 1.594505e+02 0.0
2.400000e+03 1.219085e+02 0.0
2.400000e+03 4.176937e+02 0.0
2.400000e+03 4.298119e+02 0.0
2.400000e+03 1.074208e+02 0.0
2.400000e+03 7.928282e+01 0.0
2.400000e+03 4.806287e+02 0.0
2.400000e+03 6.560401e+01 0.0
2.400000e+03 4.548671e+01 0.0
2.400000e+03 3.887176e+01 0.0
2.400000e+03 2.577819e+01 0.0
2.400000e+03 1.282246e+01 0.0
CELLS 93 279
2  0 1
2  56 55
2  57 49
2  58 45
2  59 36
2  60 59
2  61 35
2  62 31
2  63 62
2  64 63
2  65 64
2  66 67
2  68 66
2  69 70
2  71 24
2  72 23
2  73 19
2  74 73
2  75 74
2  76 18
2  77 17
2  78 77
2  79 72
2  80 14
2  81 82
2  70 25
2  83 11
2  84 85
2  85 28
2  86 10
2  87 7
2  88 68
2  89 6
2  90 4
2  91 90
2  67 65
2  92 3
2  93 2
2  1 93
2  2 92
2  3 91
2  4 5
2  82 80
2  5 89
2  6 87
2  7 8
2  8 9
2  9 86
2  10 83
2  11 12
2  12 13
2  13 81
2  14 15
2  15 16
2  16 78
2  17 76
2  18 75
2  19 20
2  20 21
2  21 22
2  22 79
2  23 71
2  24 69
2  25 26
2  26 27
2  27 84
2  28 29
2  29 30
2  30 88
2  31 32
2  32 33
2  33 34
2  34 61
2  35 60
2  36 37
2  37 38
2  38 39
2  39 40
2  40 41
2  41 42
2  42 43
2  43 44
2  44 58
2  45 46
2  46 47
2  47 48
2  48 57
2  49 50
2  50 51
2  51 52
2  52 53
2  53 54
2  54 56
CELL_TYPES 93
3
3
3
3
3
3
3
3
3
3
3
3
3
3
3
3
3
3
3
3
3
3
3
3
3
3
3
3
3
3
3
3
3
3
3
3
3
3
3
3
3
3
3
3
3
3
3
3
3
3
3
3
3
3
3
3
3
3
3
3
3
3
3
3
3
3
3
3
3
3
3
3
3
3
3
3
3
3
3
3
3
3
3
3
3
3
3
3
3
3
3
3
3
CELL_DATA 93
VECTORS initial_traction double
-7.408800e+07 0.000000e+00 0.0
-1.999200e+07 0.000000e+00 0.0
-2.704800e+07 0.000000e+00 0.0
-3.175200e+07 0.000000e+00 0.0
-4.116000e+07 0.000000e+00 0.0
-4.351200e+07 0.000000e+00 0.0
-4.351200e+07 0.000000e+00 0.0
-4.821600e+07 0.000000e+00 0.0
-4.821600e+07 0.000000e+00 0.0
-4.821600e+07 0.000000e+00 0.0
-5.056800e+07 0.000000e+00 0.0
-5.056800e+07 0.000000e+00 0.0
-5.056800e+07 0.000000e+00 0.0
-5.762400e+07 0.000000e+00 0.0
-5.997600e+07 0.000000e+00 0.0
-5.997600e+07 0.000000e+00 0.0
-6.232800e+07 0.000000e+00 0.0
-6.232800e+07 0.000000e+00 0.0
-6.468000e+07 0.000000e+00 0.0
-6.468000e+07 0.000000e+00 0.0
-6.468000e+07 0.000000e+00 0.0
-6.468000e+07 0.000000e+00 0.0
-5.997600e+07 0.000000e+00 0.0
-6.703200e+07 0.000000e+00 0.0
-6.703200e+07 0.000000e+00 0.0
-5.762400e+07 0.000000e+00 0.0
-6.938400e+07 0.000000e+00 0.0
-5.527200e+07 0.000000e+00 0.0
-5.527200e+07 0.000000e+00 0.0
-6.938400e+07 0.000000e+00 0.0
-7.173600e+07 0.000000e+00 0.0
-5.292000e+07 0.000000e+00 0.0
-7.173600e+07 0.000000e+00 0.0
-7.408800e+07 0.000000e+00 0.0
-7.408800e+07 0.000000e+00 0.0
-5.056800e+07 0.000000e+00 0.0
-7.408800e+07 0.000000e+00 0.0
-7.408800e+07 0.000000e+00 0.0
-7.408800e+07 0.000000e+00 0.0
-7.408800e+07 0.000000e+00 0.0
-7.408800e+07 0.000000e+00 0.0
-7.173600e+07 0.000000e+00 0.0
-6.703200e+07 0.000000e+00 0.0
-7.173600e+07 0.000000e+00 0.0
-7.173600e+07 0.000000e+00 0.0
-7.173600e+07 0.000000e+00 0.0
-7.173600e+07 0.000000e+00 0.0
-6.938400e+07 0.000000e+00 0.0
-6.938400e+07 0.000000e+00 0.0
-6.938400e+07 0.000000e+00 0.0
-6.938400e+07 0.000000e+00 0.0
-6.938400e+07 0.000000e+00 0.0
-6.703200e+07 0.000000e+00 0.0
-6.703200e+07 0.000000e+00 0.0
-6.703200e+07 0.000000e+00 0.0
-6.468000e+07 0.000000e+00 0.0
-6.468000e+07 0.000000e+00 0.0
-6.232800e+07 0.000000e+00 0.0
-6.232800e+07 0.000000e+00 0.0
-6.232800e+07 0.000000e+00 0.0
-5.997600e+07 0.000000e+00 0.0
-5.997600e+07 0.000000e+00 0.0
-5.762400e+07 0.000000e+00 0.0
-5.762400e+07 0.000000e+00 0.0
-5.762400e+07 0.000000e+00 0.0
-5.527200e+07 0.000000e+00 0.0
-5.527200e+07 0.000000e+00 0.0
-5.292000e+07 0.000000e+00 0.0
-5.292000e+07 0.000000e+00 0.0
-4.586400e+07 0.000000e+00 0.0
-4.586400e+07 0.000000e+00 0.0
-4.586400e+07 0.000000e+00 0.0
-4.586400e+07 0.000000e+00 0.0
-4.351200e+07 0.000000e+00 0.0
-4.116000e+07 0.000000e+00 0.0
-3.880800e+07 0.000000e+00 0.0
-3.880800e+07 0.000000e+00 0.0
-3.880800e+07 0.000000e+00 0.0
-3.645600e+07 0.000000e+00 0.0
-3.645600e+07 0.000000e+00 0.0
-3.645600e+07 0.000000e+00 0.0
-3.410400e+07 0.000000e+00 0.0
-3.410400e+07 0.000000e+00 0.0
-3.175200e+07 0.000000e+00 0.0
-3.175200e+07 0.000000e+00 0.0
-2.940000e+07 0.000000e+00 0.0
-2.940000e+07 0.000000e+00 0.0
-2.704800e+07 0.000000e+00 0.0
-2.469600e+07 0.000000e+00 0.0
-2.469600e+07 0.000000e+00 0.0
-2.234400e+07 0.000000e+00 0.0
-2.234400e+07 0.000000e+00 0.0
-1.999200e+07 0.000000e+00 0.0
